# vtk DataFile Version 5.1
vtk output
ASCII
DATASET UNSTRUCTURED_GRID
POINTS 8536 double
776.15673828 -42.095832825 0 776.15673828 -42.095832825 4.5 776.15673828 -42.095832825 9 
771.15673828 -42.095832825 9 766.15673828 -42.095832825 9 766.15673828 -42.095832825 4.5 
766.15673828 -42.095832825 0 766.15673828 -12.095830917 0 766.15673828 -22.095830917 0 
766.15673828 -32.095832825 0 766.15673828 -42.095832825 0 766.15673828 -42.095832825 4.5 
766.15673828 -42.095832825 9 766.15673828 -22.095830917 9 766.15673828 -2.0958311558 9 
766.15673828 -2.0958311558 4.5 766.15673828 -2.0958311558 0 776.15673828 -2.0958311558 0 
776.15673828 -2.0958311558 4.5 776.15673828 -2.0958311558 9 776.15673828 -22.095830917 9 
776.15673828 -42.095832825 9 776.15673828 -42.095832825 4.5 776.15673828 -42.095832825 0 
776.15673828 -32.095832825 0 776.15673828 -22.095830917 0 776.15673828 -12.095830917 0 
776.15673828 -2.0958311558 9 771.15673828 -2.0958311558 9 766.15673828 -2.0958311558 9 
766.15673828 -22.095830917 9 766.15673828 -42.095832825 9 771.15673828 -42.095832825 9 
776.15673828 -42.095832825 9 776.15673828 -22.095830917 9 766.15673828 -2.0958311558 0 
766.15673828 -2.0958311558 4.5 766.15673828 -2.0958311558 9 771.15673828 -2.0958311558 9 
776.15673828 -2.0958311558 9 776.15673828 -2.0958311558 4.5 776.15673828 -2.0958311558 0 
751.15673828 -2.0958311558 9 756.15673828 -2.0958311558 9 756.15673828 -2.0958311558 4.5 
756.15673828 -2.0958311558 0 746.15673828 -2.0958311558 0 746.15673828 -2.0958311558 4.5 
746.15673828 -2.0958311558 9 746.15673828 -42.095832825 9 746.15673828 -42.095832825 4.5 
746.15673828 -42.095832825 0 756.15673828 -42.095832825 0 756.15673828 -42.095832825 4.5 
756.15673828 -42.095832825 9 751.15673828 -42.095832825 9 746.15673828 -12.095830917 0 
746.15673828 -22.095830917 0 746.15673828 -32.095832825 0 746.15673828 -42.095832825 0 
746.15673828 -42.095832825 4.5 746.15673828 -42.095832825 9 746.15673828 -22.095830917 9 
746.15673828 -2.0958311558 9 746.15673828 -2.0958311558 4.5 746.15673828 -2.0958311558 0 
751.15673828 -42.095832825 9 756.15673828 -42.095832825 9 756.15673828 -22.095830917 9 
756.15673828 -2.0958311558 9 751.15673828 -2.0958311558 9 746.15673828 -2.0958311558 9 
746.15673828 -22.095830917 9 746.15673828 -42.095832825 9 756.15673828 -2.0958311558 0 
756.15673828 -2.0958311558 4.5 756.15673828 -2.0958311558 9 756.15673828 -22.095830917 9 
756.15673828 -42.095832825 9 756.15673828 -42.095832825 4.5 756.15673828 -42.095832825 0 
756.15673828 -32.095832825 0 756.15673828 -22.095830917 0 756.15673828 -12.095830917 0 
806.15673828 22.904169083 0 806.15673828 32.904167175 0 816.15673828 32.904167175 0 
816.15673828 22.904169083 0 806.15673828 32.904167175 9 806.15673828 32.904167175 4.5 
806.15673828 32.904167175 0 806.15673828 22.904169083 0 806.15673828 22.904169083 4.5 
806.15673828 22.904169083 9 806.15673828 27.904169083 9 816.15673828 22.904169083 0 
816.15673828 22.904169083 4.5 816.15673828 22.904169083 9 811.15673828 22.904169083 9 
806.15673828 22.904169083 9 806.15673828 22.904169083 4.5 806.15673828 22.904169083 0 
816.15673828 32.904167175 9 811.15673828 32.904167175 9 806.15673828 32.904167175 9 
806.15673828 27.904169083 9 806.15673828 22.904169083 9 811.15673828 22.904169083 9 
816.15673828 22.904169083 9 816.15673828 27.904169083 9 806.15673828 32.904167175 0 
806.15673828 32.904167175 4.5 806.15673828 32.904167175 9 811.15673828 32.904167175 9 
816.15673828 32.904167175 9 816.15673828 32.904167175 4.5 816.15673828 32.904167175 0 
816.15673828 27.904169083 9 816.15673828 22.904169083 9 816.15673828 22.904169083 4.5 
816.15673828 22.904169083 0 816.15673828 32.904167175 0 816.15673828 32.904167175 4.5 
816.15673828 32.904167175 9 786.15673828 22.904169083 0 786.15673828 32.904167175 0 
796.15673828 32.904167175 0 796.15673828 22.904169083 0 786.15673828 32.904167175 9 
786.15673828 32.904167175 4.5 786.15673828 32.904167175 0 786.15673828 22.904169083 0 
786.15673828 22.904169083 4.5 786.15673828 22.904169083 9 786.15673828 27.904169083 9 
786.15673828 22.904169083 9 786.15673828 22.904169083 4.5 786.15673828 22.904169083 0 
796.15673828 22.904169083 0 796.15673828 22.904169083 4.5 796.15673828 22.904169083 9 
791.15673828 22.904169083 9 791.15673828 32.904167175 9 796.15673828 32.904167175 9 
796.15673828 32.904167175 4.5 796.15673828 32.904167175 0 786.15673828 32.904167175 0 
786.15673828 32.904167175 4.5 786.15673828 32.904167175 9 791.15673828 22.904169083 9 
796.15673828 22.904169083 9 796.15673828 27.904169083 9 796.15673828 32.904167175 9 
791.15673828 32.904167175 9 786.15673828 32.904167175 9 786.15673828 27.904169083 9 
786.15673828 22.904169083 9 796.15673828 27.904169083 9 796.15673828 22.904169083 9 
796.15673828 22.904169083 4.5 796.15673828 22.904169083 0 796.15673828 32.904167175 0 
796.15673828 32.904167175 4.5 796.15673828 32.904167175 9 786.15673828 2.9041688442 0 
786.15673828 2.9041688442 4.5 786.15673828 2.9041688442 9 786.15673828 7.9041686058 9 
786.15673828 12.904169083 9 786.15673828 12.904169083 4.5 786.15673828 12.904169083 0 
786.15673828 2.9041688442 9 786.15673828 2.9041688442 4.5 786.15673828 2.9041688442 0 
796.15673828 2.9041688442 0 796.15673828 2.9041688442 4.5 796.15673828 2.9041688442 9 
791.15673828 2.9041688442 9 791.15673828 12.904169083 9 796.15673828 12.904169083 9 
796.15673828 12.904169083 4.5 796.15673828 12.904169083 0 786.15673828 12.904169083 0 
786.15673828 12.904169083 4.5 786.15673828 12.904169083 9 786.15673828 12.904169083 9 
786.15673828 7.9041686058 9 786.15673828 2.9041688442 9 791.15673828 2.9041688442 9 
796.15673828 2.9041688442 9 796.15673828 7.9041686058 9 796.15673828 12.904169083 9 
791.15673828 12.904169083 9 796.15673828 12.904169083 0 796.15673828 12.904169083 4.5 
796.15673828 12.904169083 9 796.15673828 7.9041686058 9 796.15673828 2.9041688442 9 
796.15673828 2.9041688442 4.5 796.15673828 2.9041688442 0 741.15673828 27.904169083 9 
741.15673828 22.904169083 9 741.15673828 22.904169083 4.5 741.15673828 22.904169083 0 
741.15673828 32.904167175 0 741.15673828 32.904167175 4.5 741.15673828 32.904167175 9 
711.15673828 32.904167175 0 701.15673828 32.904167175 0 701.15673828 32.904167175 4.5 
701.15673828 32.904167175 9 721.15673828 32.904167175 9 741.15673828 32.904167175 9 
741.15673828 32.904167175 4.5 741.15673828 32.904167175 0 731.15673828 32.904167175 0 
721.15673828 32.904167175 0 701.15673828 27.904169083 9 701.15673828 22.904169083 9 
721.15673828 22.904169083 9 741.15673828 22.904169083 9 741.15673828 27.904169083 9 
741.15673828 32.904167175 9 721.15673828 32.904167175 9 701.15673828 32.904167175 9 
701.15673828 32.904167175 9 701.15673828 32.904167175 4.5 701.15673828 32.904167175 0 
701.15673828 22.904169083 0 701.15673828 22.904169083 4.5 701.15673828 22.904169083 9 
701.15673828 27.904169083 9 721.15673828 22.904169083 0 731.15673828 22.904169083 0 
741.15673828 22.904169083 0 741.15673828 22.904169083 4.5 741.15673828 22.904169083 9 
721.15673828 22.904169083 9 701.15673828 22.904169083 9 701.15673828 22.904169083 4.5 
701.15673828 22.904169083 0 711.15673828 22.904169083 0 711.15673828 12.904169083 0 
701.15673828 12.904169083 0 701.15673828 12.904169083 4.5 701.15673828 12.904169083 9 
721.15673828 12.904169083 9 741.15673828 12.904169083 9 741.15673828 12.904169083 4.5 
741.15673828 12.904169083 0 731.15673828 12.904169083 0 721.15673828 12.904169083 0 
741.15673828 12.904169083 0 741.15673828 12.904169083 4.5 741.15673828 12.904169083 9 
741.15673828 7.9041686058 9 741.15673828 2.9041688442 9 741.15673828 2.9041688442 4.5 
741.15673828 2.9041688442 0 701.15673828 2.9041688442 0 701.15673828 2.9041688442 4.5 
701.15673828 2.9041688442 9 701.15673828 7.9041686058 9 701.15673828 12.904169083 9 
701.15673828 12.904169083 4.5 701.15673828 12.904169083 0 701.15673828 12.904169083 9 
701.15673828 7.9041686058 9 701.15673828 2.9041688442 9 721.15673828 2.9041688442 9 
741.15673828 2.9041688442 9 741.15673828 7.9041686058 9 741.15673828 12.904169083 9 
721.15673828 12.904169083 9 721.15673828 2.9041688442 0 731.15673828 2.9041688442 0 
741.15673828 2.9041688442 0 741.15673828 2.9041688442 4.5 741.15673828 2.9041688442 9 
721.15673828 2.9041688442 9 701.15673828 2.9041688442 9 701.15673828 2.9041688442 4.5 
701.15673828 2.9041688442 0 711.15673828 2.9041688442 0 806.15673828 2.9041688442 0 
806.15673828 2.9041688442 4.5 806.15673828 2.9041688442 9 806.15673828 7.9041686058 9 
806.15673828 12.904169083 9 806.15673828 12.904169083 4.5 806.15673828 12.904169083 0 
816.15673828 2.9041688442 0 816.15673828 2.9041688442 4.5 816.15673828 2.9041688442 9 
811.15673828 2.9041688442 9 806.15673828 2.9041688442 9 806.15673828 2.9041688442 4.5 
806.15673828 2.9041688442 0 811.15673828 12.904169083 9 806.15673828 12.904169083 9 
806.15673828 7.9041686058 9 806.15673828 2.9041688442 9 811.15673828 2.9041688442 9 
816.15673828 2.9041688442 9 816.15673828 7.9041686058 9 816.15673828 12.904169083 9 
816.15673828 12.904169083 0 816.15673828 12.904169083 4.5 816.15673828 12.904169083 9 
816.15673828 7.9041686058 9 816.15673828 2.9041688442 9 816.15673828 2.9041688442 4.5 
816.15673828 2.9041688442 0 806.15673828 12.904169083 0 806.15673828 12.904169083 4.5 
806.15673828 12.904169083 9 811.15673828 12.904169083 9 816.15673828 12.904169083 9 
816.15673828 12.904169083 4.5 816.15673828 12.904169083 0 756.15673828 42.904167175 0 
756.15673828 42.904167175 8 756.15673828 42.904167175 16 751.15673828 42.904167175 16 
746.15673828 42.904167175 16 746.15673828 42.904167175 8 746.15673828 42.904167175 0 
746.15673828 42.904167175 0 746.15673828 42.904167175 8 746.15673828 42.904167175 16 
746.15673828 47.904167175 16 746.15673828 52.904167175 16 746.15673828 52.904167175 8 
746.15673828 52.904167175 0 746.15673828 52.904167175 16 746.15673828 47.904167175 16 
[...]
CELL_DATA 2723
SCALARS Id int
LOOKUP_TABLE default
2 2 2 1 2 2 2 2 1 
2 2 2 2 1 2 2 2 2 
2 2 1 2 2 2 2 1 2 
2 2 1 2 2 2 2 2 1 
2 2 2 1 2 2 2 2 1 
2 2 2 2 2 1 2 2 2 
2 1 2 2 2 2 1 2 2 
2 1 2 2 2 2 1 2 2 
2 2 2 1 2 2 2 1 2 
2 0 0 0 0 0 0 0 0 
0 0 0 0 0 0 0 0 0 
0 0 0 0 0 0 0 0 0 
0 0 0 0 0 0 0 0 0 
0 0 0 0 0 0 0 0 0 
0 0 0 0 0 0 0 0 0 
0 0 0 0 0 0 0 0 0 
0 0 0 0 0 0 0 0 0 
0 0 0 0 0 0 0 0 0 
0 0 0 0 0 0 0 0 0 
0 0 0 0 0 0 0 0 0 
0 0 0 0 0 0 0 0 0 
0 0 0 0 0 0 0 0 0 
0 0 0 0 0 0 0 0 0 
0 0 0 0 0 0 0 0 0 
0 0 0 0 0 0 0 0 0 
0 0 0 0 0 0 0 0 0 
0 0 0 0 0 0 0 0 0 
0 0 0 0 0 0 0 0 0 
0 0 0 0 0 0 0 0 0 
0 0 0 0 0 0 0 0 0 
0 0 0 0 0 0 0 0 0 
0 0 0 0 0 0 0 0 0 
0 0 0 0 0 0 0 0 0 
0 0 0 0 0 0 0 0 0 
0 0 0 0 0 0 0 0 0 
0 0 0 0 0 0 0 0 0 
0 0 0 0 0 0 0 0 0 
0 0 0 0 0 0 0 0 0 
0 0 0 0 0 0 0 0 0 
0 0 0 0 0 0 0 0 0 
0 0 0 0 0 0 0 0 0 
0 0 0 0 0 0 0 0 0 
0 0 0 0 0 0 0 0 0 
0 0 0 0 0 0 0 0 0 
0 0 0 0 0 0 0 0 0 
0 0 0 0 0 0 0 0 0 
0 0 0 0 0 0 0 0 0 
0 0 0 0 0 0 0 0 0 
0 0 0 0 0 0 0 0 0 
0 0 0 0 0 0 0 0 0 
0 0 0 0 0 0 0 0 0 
0 0 0 0 0 0 0 0 0 
0 0 0 0 0 0 0 0 0 
0 0 0 0 0 0 0 0 0 
0 0 0 0 0 0 0 0 0 
0 0 0 0 0 0 0 0 0 
0 0 0 0 0 0 0 0 0 
0 0 0 0 0 0 0 0 0 
0 0 0 0 0 0 0 0 0 
0 0 0 0 0 0 0 0 0 
0 0 0 0 0 0 0 0 0 
0 0 0 0 0 0 0 0 0 
0 0 0 0 0 0 0 0 0 
0 0 0 0 0 0 0 0 0 
0 0 0 0 0 0 0 0 0 
0 0 0 0 0 0 0 0 0 
0 0 0 0 0 0 0 0 0 
0 0 0 0 0 0 0 0 0 
0 0 0 0 0 0 0 0 0 
0 0 0 0 0 0 0 0 0 
0 0 0 0 0 0 0 0 0 
0 0 0 0 0 0 0 0 0 
0 0 0 0 0 0 0 0 0 
0 0 0 0 0 0 0 0 0 
0 0 0 0 0 0 0 0 0 
0 0 0 0 0 0 0 0 0 
0 0 0 0 0 0 0 0 0 
0 0 0 0 0 0 0 0 0 
0 0 0 0 0 0 0 0 0 
0 0 0 0 0 0 0 0 0 
0 0 0 0 0 0 0 0 0 
0 0 0 0 0 0 0 0 0 
0 0 0 0 0 0 0 0 0 
0 0 0 0 0 0 0 0 0 
0 0 0 0 0 0 0 0 0 
0 0 0 0 0 0 0 0 0 
0 0 0 0 0 0 0 0 0 
0 0 0 0 0 0 0 0 0 
0 0 0 0 0 0 0 0 0 
0 0 0 0 0 0 0 0 0 
0 0 0 0 0 0 0 0 0 
0 0 0 0 0 0 0 0 0 
0 0 0 0 0 0 0 0 0 
0 0 0 0 0 0 0 0 0 
0 0 0 0 0 0 0 0 0 
0 0 0 0 0 0 0 0 0 
0 0 0 0 0 0 0 0 0 
0 0 0 0 0 0 0 0 0 
0 0 0 0 0 0 0 0 0 
0 0 0 0 0 0 0 0 0 
0 0 0 0 0 0 0 0 0 
0 0 0 0 0 0 0 0 0 
0 0 0 0 0 0 0 0 0 
0 0 0 0 0 0 0 0 0 
0 0 0 0 0 0 0 0 0 
0 0 0 0 0 0 0 0 0 
0 0 0 0 0 0 0 0 0 
0 0 0 0 0 0 0 0 0 
0 0 0 0 0 0 0 0 0 
0 0 0 0 0 0 0 0 0 
0 0 0 0 0 0 0 0 0 
0 0 0 0 0 0 0 0 0 
0 0 0 0 0 0 0 0 0 
0 0 0 0 0 0 0 0 0 
0 0 0 0 0 0 0 0 0 
0 0 0 0 0 0 0 0 0 
0 0 0 0 0 0 0 0 0 
0 0 0 0 0 0 0 0 0 
0 0 0 0 0 0 0 0 0 
0 0 0 0 0 0 0 0 0 
0 0 0 0 0 0 0 0 0 
0 0 0 0 0 0 0 0 0 
0 0 0 0 0 0 0 0 0 
0 0 0 0 0 0 0 0 0 
0 0 0 0 0 0 0 0 0 
0 0 0 0 0 0 0 0 0 
0 0 0 0 0 0 0 0 0 
0 0 0 0 0 0 0 0 0 
0 0 0 0 0 0 0 0 0 
0 0 0 0 0 0 0 0 0 
0 0 0 0 0 0 0 0 0 
0 0 0 0 0 0 0 0 0 
0 0 0 0 0 0 0 0 0 
0 0 0 0 0 0 0 0 0 
0 0 0 0 0 0 0 0 0 
0 0 0 0 0 0 0 0 0 
0 0 0 0 0 0 0 0 0 
0 0 0 0 0 0 0 0 0 
0 0 0 0 0 0 0 0 0 
0 0 0 0 0 0 0 0 0 
0 0 0 0 0 0 0 0 0 
0 0 0 0 0 0 0 0 0 
0 0 0 0 0 0 0 0 0 
0 0 0 0 0 0 0 0 0 
0 0 0 0 0 0 0 0 0 
0 0 0 0 0 0 0 0 0 
0 0 0 0 0 0 0 0 0 
0 0 0 0 0 0 0 0 0 
0 0 0 0 0 0 0 0 0 
0 0 0 0 0 0 0 0 0 
0 0 0 0 0 0 0 0 0 
0 0 0 0 0 0 0 0 0 
0 0 0 0 0 0 0 0 0 
0 0 0 0 0 0 0 0 0 
0 0 0 0 0 0 0 0 0 
0 0 0 0 0 0 0 0 0 
0 0 0 0 0 0 0 0 0 
0 0 0 0 0 0 0 0 0 
0 0 0 0 0 0 0 0 0 
0 0 0 0 0 0 0 0 0 
0 0 0 0 0 0 0 0 0 
0 0 0 0 0 0 0 0 0 
0 0 0 0 0 0 0 0 0 
0 0 0 0 0 0 0 0 0 
0 0 0 0 0 0 0 0 0 
0 0 0 0 0 0 0 0 0 
0 0 0 0 0 0 0 0 0 
0 0 0 0 0 0 0 0 0 
0 0 0 0 0 0 0 0 0 
0 0 0 0 0 0 0 0 0 
0 0 0 0 0 0 0 0 0 
0 0 0 0 0 0 0 0 0 
0 0 0 0 0 0 0 0 0 
0 0 0 0 0 0 0 0 0 
0 0 0 0 0 0 0 0 0 
0 0 0 0 0 0 0 0 0 
0 0 0 0 0 0 0 0 0 
0 0 0 0 0 0 0 0 0 
0 0 0 0 0 0 0 0 0 
0 0 0 0 0 0 0 0 0 
0 0 0 0 0 0 0 0 0 
0 0 0 0 0 0 0 0 0 
0 0 0 0 0 0 0 0 0 
0 0 0 0 0 0 0 0 0 
0 0 0 0 0 0 0 0 0 
0 0 0 0 0 0 0 0 0 
0 0 0 0 0 0 0 0 0 
0 0 0 0 0 0 0 0 0 
0 0 0 0 0 0 0 0 0 
0 0 0 0 0 0 0 0 0 
0 0 0 0 0 0 0 0 0 
0 0 0 0 0 0 0 0 0 
0 0 0 0 0 0 0 0 0 
0 0 0 0 0 0 0 0 0 
0 0 0 0 0 0 0 0 0 
0 0 0 0 0 0 0 0 0 
0 0 0 0 0 0 0 0 0 
0 0 0 0 0 0 0 0 0 
0 0 0 0 0 0 0 0 0 
0 0 0 0 0 0 0 0 0 
0 0 0 0 0 0 0 0 0 
0 0 0 0 0 0 0 0 0 
0 0 0 0 0 0 0 0 0 
0 0 0 0 0 0 0 0 0 
0 0 0 0 0 0 0 0 0 
0 0 0 0 0 0 0 0 0 
0 0 0 0 0 0 0 0 0 
0 0 0 0 0 0 0 0 0 
0 0 0 0 0 0 0 0 0 
0 0 0 0 0 0 0 0 0 
0 0 0 0 0 0 0 0 0 
0 0 0 0 0 0 0 0 0 
0 0 0 0 0 0 0 0 0 
0 0 0 0 0 0 0 0 0 
0 0 0 0 0 0 0 0 0 
0 0 0 0 0 0 0 0 0 
0 0 0 0 0 0 0 0 0 
0 0 0 0 0 0 0 0 0 
0 0 0 0 0 0 0 0 0 
0 0 0 0 0 0 0 0 0 
0 0 0 0 0 0 0 0 0 
0 0 0 0 0 0 0 0 0 
0 0 0 0 0 0 0 0 0 
0 0 0 0 0 0 0 0 0 
0 0 0 0 0 0 0 0 0 
0 0 0 0 0 0 0 0 0 
0 0 0 0 0 0 0 0 0 
0 0 0 0 0 0 0 0 0 
0 0 0 0 0 0 0 0 0 
0 0 0 0 0 0 0 0 0 
0 0 0 0 0 0 0 0 0 
0 0 0 0 0 0 0 0 0 
0 0 0 0 0 0 0 0 0 
0 0 0 0 0 0 0 0 0 
0 0 0 0 0 0 0 0 0 
0 0 0 0 0 0 0 0 0 
0 0 0 0 0 0 0 0 0 
0 0 0 0 0 0 0 0 0 
0 0 0 0 0 0 0 0 0 
0 0 0 0 0 0 0 0 0 
0 0 0 0 0 0 0 0 0 
0 0 0 0 0 0 0 0 0 
0 0 0 0 0 0 0 0 0 
0 0 0 0 0 0 0 0 0 
0 0 0 0 0 0 0 0 0 
0 0 0 0 0 0 0 0 0 
0 0 0 0 0 0 0 0 0 
0 0 0 0 0 0 0 0 0 
0 0 0 0 0 0 0 0 0 
0 0 0 0 0 0 0 0 0 
0 0 0 0 0 0 0 0 0 
0 0 0 0 0 0 0 0 0 
0 0 0 0 0 0 0 0 0 
0 0 0 0 0 0 0 0 0 
0 0 0 0 0 0 0 0 0 
0 0 0 0 0 0 0 0 0 
0 0 0 0 0 0 0 0 0 
0 0 0 0 0 0 0 0 0 
0 0 0 0 0 0 0 0 0 
0 0 0 0 0 0 0 0 0 
0 0 0 0 0 0 0 0 0 
0 0 0 0 0 0 0 0 0 
0 0 0 0 0 0 0 0 0 
0 0 0 0 0 0 0 0 0 
0 0 0 0 0 0 0 0 0 
0 0 0 0 0 0 0 0 0 
0 0 0 0 0 0 0 0 0 
0 0 0 0 0 0 0 0 0 
0 0 0 0 0 0 0 0 0 
0 0 0 0 0 0 0 0 0 
0 0 0 0 0 0 0 0 0 
0 0 0 0 0 0 0 0 0 
0 0 0 0 0 0 0 0 0 
0 0 0 0 0 0 0 0 0 
0 0 0 0 0 0 0 0 0 
0 0 0 0 0 0 0 0 0 
0 0 0 0 0 0 0 0 0 
0 0 0 0 0 0 0 0 0 
0 0 0 0 0 0 0 0 0 
0 0 0 0 0 0 0 0 0 
0 0 0 0 0 0 0 0 0 
0 0 0 0 0 0 0 0 0 
0 0 0 0 0 0 0 0 0 
0 0 0 0 0 0 0 0 0 
0 0 0 0 0 0 0 0 0 
0 0 0 0 0 0 0 0 0 
0 0 0 0 0 0 0 0 0 
0 0 0 0 0 0 0 0 0 
0 0 0 0 0 0 0 0 0 
0 0 0 0 0 0 0 0 0 
0 0 0 0 0 0 0 0 0 
0 0 0 0 0 0 0 0 0 
0 0 0 0 0 0 0 0 0 
0 0 0 0 0 0 0 0 0 
0 0 0 0 0 0 0 0 0 
0 0 0 0 0 0 0 0 0 
0 0 0 0 0 0 0 0 0 
0 0 0 0 0 0 0 0 0 
0 0 0 0 0 0 0 0 0 
0 0 0 0 0 0 0 0 0 
0 0 0 0 0 0 0 0 0 
0 0 0 0 0 0 0 0 0 
0 0 0 0 0 
FIELD FieldData 1
Name 1 2723 string
VTK_batiment_sans_sol_0_mur_1
VTK_batiment_sans_sol_0_mur_2
VTK_batiment_sans_sol_0_mur_3
VTK_batiment_sans_sol_0_toit_4
VTK_batiment_sans_sol_0_mur_5
VTK_batiment_sans_sol_1_mur_1
VTK_batiment_sans_sol_1_mur_2
VTK_batiment_sans_sol_1_mur_3
VTK_batiment_sans_sol_1_toit_4
VTK_batiment_sans_sol_1_mur_5
VTK_batiment_sans_sol_10_mur_1
VTK_batiment_sans_sol_10_mur_2
VTK_batiment_sans_sol_10_mur_3
VTK_batiment_sans_sol_10_toit_4
VTK_batiment_sans_sol_10_mur_5
VTK_batiment_sans_sol_10_mur_6
VTK_batiment_sans_sol_11_mur_1
VTK_batiment_sans_sol_11_mur_2
VTK_batiment_sans_sol_11_mur_3
VTK_batiment_sans_sol_11_mur_4
VTK_batiment_sans_sol_11_toit_5
VTK_batiment_sans_sol_11_mur_6
VTK_batiment_sans_sol_12_mur_1
VTK_batiment_sans_sol_12_mur_2
VTK_batiment_sans_sol_12_mur_3
VTK_batiment_sans_sol_12_toit_4
VTK_batiment_sans_sol_12_mur_5
VTK_batiment_sans_sol_13_mur_1
VTK_batiment_sans_sol_13_mur_2
VTK_batiment_sans_sol_13_toit_3
VTK_batiment_sans_sol_13_mur_4
VTK_batiment_sans_sol_13_mur_5
VTK_batiment_sans_sol_14_mur_1
VTK_batiment_sans_sol_14_mur_2
VTK_batiment_sans_sol_14_mur_3
VTK_batiment_sans_sol_14_toit_4
VTK_batiment_sans_sol_14_mur_5
VTK_batiment_sans_sol_15_mur_1
VTK_batiment_sans_sol_15_mur_2
VTK_batiment_sans_sol_15_toit_3
VTK_batiment_sans_sol_15_mur_4
VTK_batiment_sans_sol_15_mur_5
VTK_batiment_sans_sol_2_mur_1
VTK_batiment_sans_sol_2_mur_2
VTK_batiment_sans_sol_2_toit_3
VTK_batiment_sans_sol_2_mur_4
VTK_batiment_sans_sol_2_mur_5
VTK_batiment_sans_sol_3_mur_1
VTK_batiment_sans_sol_3_mur_2
VTK_batiment_sans_sol_3_mur_3
VTK_batiment_sans_sol_3_toit_4
VTK_batiment_sans_sol_3_mur_5
VTK_batiment_sans_sol_4_mur_1
VTK_batiment_sans_sol_4_mur_2
VTK_batiment_sans_sol_4_mur_3
VTK_batiment_sans_sol_4_toit_4
VTK_batiment_sans_sol_4_mur_5
VTK_batiment_sans_sol_5_mur_1
VTK_batiment_sans_sol_5_mur_2
VTK_batiment_sans_sol_5_mur_3
VTK_batiment_sans_sol_5_toit_4
VTK_batiment_sans_sol_5_mur_5
VTK_batiment_sans_sol_6_mur_1
VTK_batiment_sans_sol_6_mur_2
VTK_batiment_sans_sol_6_toit_3
VTK_batiment_sans_sol_6_mur_4
VTK_batiment_sans_sol_6_mur_5
VTK_batiment_sans_sol_7_mur_1
VTK_batiment_sans_sol_7_mur_2
VTK_batiment_sans_sol_7_toit_3
VTK_batiment_sans_sol_7_mur_4
VTK_batiment_sans_sol_7_mur_5
VTK_batiment_sans_sol_8_mur_1
VTK_batiment_sans_sol_8_mur_2
VTK_batiment_sans_sol_8_mur_3
VTK_batiment_sans_sol_8_toit_4
VTK_batiment_sans_sol_8_mur_5
VTK_batiment_sans_sol_9_mur_1
VTK_batiment_sans_sol_9_mur_2
VTK_batiment_sans_sol_9_toit_3
VTK_batiment_sans_sol_9_mur_4
VTK_batiment_sans_sol_9_mur_5
VTK_p_sol_ext_1
VTK_p_sol_ext_2
VTK_p_sol_ext_3
VTK_p_sol_ext_4
VTK_p_sol_ext_5
VTK_p_sol_ext_6
VTK_p_sol_ext_7
VTK_p_sol_ext_8
VTK_p_sol_ext_9
VTK_p_sol_ext_10
VTK_p_sol_ext_11
VTK_p_sol_ext_12
VTK_p_sol_ext_13
VTK_p_sol_ext_14
VTK_p_sol_ext_15
VTK_p_sol_ext_16
VTK_p_sol_ext_17
VTK_p_sol_ext_18
VTK_p_sol_ext_19
VTK_p_sol_ext_20
VTK_p_sol_ext_21
VTK_p_sol_ext_22
VTK_p_sol_ext_23
VTK_p_sol_ext_24
VTK_p_sol_ext_25
VTK_p_sol_ext_26
VTK_p_sol_ext_27
VTK_p_sol_ext_28
VTK_p_sol_ext_29
VTK_p_sol_ext_30
VTK_p_sol_ext_31
VTK_p_sol_ext_32
VTK_sol_t_sol_ext_1577
VTK_sol_t_sol_ext_1578
VTK_sol_t_sol_ext_1579
VTK_sol_t_sol_ext_1580
VTK_sol_t_sol_ext_1581
VTK_sol_t_sol_ext_1582
VTK_sol_t_sol_ext_1583
VTK_sol_t_sol_ext_1584
VTK_sol_t_sol_ext_1585
VTK_sol_t_sol_ext_1586
VTK_sol_t_sol_ext_1587
VTK_sol_t_sol_ext_1588
VTK_sol_t_sol_ext_1589
VTK_sol_t_sol_ext_1590
VTK_sol_t_sol_ext_1591
VTK_sol_t_sol_ext_1592
VTK_sol_t_sol_ext_1593
VTK_sol_t_sol_ext_1594
VTK_sol_t_sol_ext_1595
VTK_sol_t_sol_ext_1596
VTK_sol_t_sol_ext_1597
VTK_sol_t_sol_ext_1598
VTK_sol_t_sol_ext_1599
VTK_sol_t_sol_ext_1600
VTK_sol_t_sol_ext_1601
VTK_sol_t_sol_ext_1602
VTK_sol_t_sol_ext_1603
VTK_sol_t_sol_ext_1604
VTK_sol_t_sol_ext_1605
VTK_sol_t_sol_ext_1606
VTK_sol_t_sol_ext_1607
VTK_sol_t_sol_ext_1608
VTK_sol_t_sol_ext_1609
VTK_sol_t_sol_ext_1610
VTK_sol_t_sol_ext_1611
VTK_sol_t_sol_ext_1612
VTK_sol_t_sol_ext_1613
VTK_sol_t_sol_ext_1614
VTK_sol_t_sol_ext_1615
VTK_sol_t_sol_ext_1616
VTK_sol_t_sol_ext_1617
VTK_sol_t_sol_ext_1618
VTK_sol_t_sol_ext_1619
VTK_sol_t_sol_ext_1620
VTK_sol_t_sol_ext_1621
VTK_sol_t_sol_ext_1622
VTK_sol_t_sol_ext_1623
VTK_sol_t_sol_ext_1624
VTK_sol_t_sol_ext_1625
VTK_sol_t_sol_ext_1626
VTK_sol_t_sol_ext_1627
VTK_sol_t_sol_ext_1628
VTK_sol_t_sol_ext_1629
VTK_sol_t_sol_ext_1630
VTK_sol_t_sol_ext_1631
VTK_sol_t_sol_ext_1632
VTK_sol_t_sol_ext_1633
VTK_sol_t_sol_ext_1634
VTK_sol_t_sol_ext_1635
VTK_sol_t_sol_ext_1636
VTK_sol_t_sol_ext_1637
VTK_sol_t_sol_ext_1638
VTK_sol_t_sol_ext_1639
VTK_sol_t_sol_ext_1640
VTK_sol_t_sol_ext_1641
VTK_sol_t_sol_ext_1642
VTK_sol_t_sol_ext_1643
VTK_sol_t_sol_ext_1644
VTK_sol_t_sol_ext_1645
VTK_sol_t_sol_ext_1646
VTK_sol_t_sol_ext_1647
VTK_sol_t_sol_ext_1648
VTK_sol_t_sol_ext_1649
VTK_sol_t_sol_ext_1650
VTK_sol_t_sol_ext_1651
VTK_sol_t_sol_ext_1652
VTK_sol_t_sol_ext_1653
VTK_sol_t_sol_ext_1654
VTK_sol_t_sol_ext_1655
VTK_sol_t_sol_ext_1656
VTK_sol_t_sol_ext_1657
VTK_sol_t_sol_ext_1658
VTK_sol_t_sol_ext_1659
VTK_sol_t_sol_ext_1660
VTK_sol_t_sol_ext_1661
VTK_sol_t_sol_ext_1662
VTK_sol_t_sol_ext_1663
VTK_sol_t_sol_ext_1664
VTK_sol_t_sol_ext_1665
VTK_sol_t_sol_ext_1666
VTK_sol_t_sol_ext_1667
VTK_sol_t_sol_ext_1668
VTK_sol_t_sol_ext_1669
VTK_sol_t_sol_ext_1670
VTK_sol_t_sol_ext_1671
VTK_sol_t_sol_ext_1672
VTK_sol_t_sol_ext_1673
VTK_sol_t_sol_ext_1674
VTK_sol_t_sol_ext_1675
VTK_sol_t_sol_ext_1676
VTK_sol_t_sol_ext_1677
VTK_sol_t_sol_ext_1678
VTK_sol_t_sol_ext_1679
VTK_sol_t_sol_ext_1680
VTK_sol_t_sol_ext_1681
VTK_sol_t_sol_ext_1682
VTK_sol_t_sol_ext_1683
VTK_sol_t_sol_ext_1684
VTK_sol_t_sol_ext_1685
VTK_sol_t_sol_ext_1686
VTK_sol_t_sol_ext_1687
VTK_sol_t_sol_ext_1688
VTK_sol_t_sol_ext_1689
VTK_sol_t_sol_ext_1690
VTK_sol_t_sol_ext_1691
VTK_sol_t_sol_ext_1692
VTK_sol_t_sol_ext_1693
VTK_sol_t_sol_ext_1694
VTK_sol_t_sol_ext_1695
VTK_sol_t_sol_ext_1696
VTK_sol_t_sol_ext_1697
VTK_sol_t_sol_ext_1698
VTK_sol_t_sol_ext_1699
VTK_sol_t_sol_ext_1700
VTK_sol_t_sol_ext_1701
VTK_sol_t_sol_ext_1702
VTK_sol_t_sol_ext_1703
VTK_sol_t_sol_ext_1704
VTK_sol_t_sol_ext_1705
VTK_sol_t_sol_ext_1706
VTK_sol_t_sol_ext_1707
VTK_sol_t_sol_ext_1708
VTK_sol_t_sol_ext_1709
VTK_sol_t_sol_ext_1710
VTK_sol_t_sol_ext_1711
VTK_sol_t_sol_ext_1712
VTK_sol_t_sol_ext_1713
VTK_sol_t_sol_ext_1714
VTK_sol_t_sol_ext_1715
VTK_sol_t_sol_ext_1716
VTK_sol_t_sol_ext_1717
VTK_sol_t_sol_ext_1718
VTK_sol_t_sol_ext_1719
VTK_sol_t_sol_ext_1720
VTK_sol_t_sol_ext_1721
VTK_sol_t_sol_ext_1722
VTK_sol_t_sol_ext_1723
VTK_sol_t_sol_ext_1724
VTK_sol_t_sol_ext_1725
VTK_sol_t_sol_ext_1726
VTK_sol_t_sol_ext_1727
VTK_sol_t_sol_ext_1728
VTK_sol_t_sol_ext_1729
VTK_sol_t_sol_ext_1730
VTK_sol_t_sol_ext_1731
VTK_sol_t_sol_ext_1732
VTK_sol_t_sol_ext_1733
VTK_sol_t_sol_ext_1734
VTK_sol_t_sol_ext_1735
VTK_sol_t_sol_ext_1736
VTK_sol_t_sol_ext_1737
VTK_sol_t_sol_ext_1738
VTK_sol_t_sol_ext_1739
VTK_sol_t_sol_ext_1740
VTK_sol_t_sol_ext_1741
VTK_sol_t_sol_ext_1742
VTK_sol_t_sol_ext_1743
VTK_sol_t_sol_ext_1744
VTK_sol_t_sol_ext_1745
VTK_sol_t_sol_ext_1746
VTK_sol_t_sol_ext_1747
VTK_sol_t_sol_ext_1748
VTK_sol_t_sol_ext_1749
VTK_sol_t_sol_ext_1750
VTK_sol_t_sol_ext_1751
VTK_sol_t_sol_ext_1752
VTK_sol_t_sol_ext_1753
VTK_sol_t_sol_ext_1754
VTK_sol_t_sol_ext_1755
VTK_sol_t_sol_ext_1756
VTK_sol_t_sol_ext_1757
VTK_sol_t_sol_ext_1758
VTK_sol_t_sol_ext_1759
VTK_sol_t_sol_ext_1760
VTK_sol_t_sol_ext_1761
VTK_sol_t_sol_ext_1762
VTK_sol_t_sol_ext_1763
VTK_sol_t_sol_ext_1764
VTK_sol_t_sol_ext_1765
VTK_sol_t_sol_ext_1766
VTK_sol_t_sol_ext_1767
VTK_sol_t_sol_ext_1768
VTK_sol_t_sol_ext_1769
VTK_sol_t_sol_ext_1770
VTK_sol_t_sol_ext_1771
VTK_sol_t_sol_ext_1772
VTK_sol_t_sol_ext_1773
VTK_sol_t_sol_ext_1774
VTK_sol_t_sol_ext_1775
VTK_sol_t_sol_ext_1776
VTK_sol_t_sol_ext_1777
VTK_sol_t_sol_ext_1778
VTK_sol_t_sol_ext_1779
VTK_sol_t_sol_ext_1780
VTK_sol_t_sol_ext_1781
VTK_sol_t_sol_ext_1782
VTK_sol_t_sol_ext_1783
VTK_sol_t_sol_ext_1784
VTK_sol_t_sol_ext_1785
VTK_sol_t_sol_ext_1786
VTK_sol_t_sol_ext_1787
VTK_sol_t_sol_ext_1788
VTK_sol_t_sol_ext_1789
VTK_sol_t_sol_ext_1790
VTK_sol_t_sol_ext_1791
VTK_sol_t_sol_ext_1792
VTK_sol_t_sol_ext_1793
VTK_sol_t_sol_ext_1794
VTK_sol_t_sol_ext_1795
VTK_sol_t_sol_ext_1796
VTK_sol_t_sol_ext_1797
VTK_sol_t_sol_ext_1798
VTK_sol_t_sol_ext_1799
VTK_sol_t_sol_ext_1800
VTK_sol_t_sol_ext_1801
VTK_sol_t_sol_ext_1802
VTK_sol_t_sol_ext_1803
VTK_sol_t_sol_ext_1804
VTK_sol_t_sol_ext_1805
VTK_sol_t_sol_ext_1806
VTK_sol_t_sol_ext_1807
VTK_sol_t_sol_ext_1808
VTK_sol_t_sol_ext_1809
VTK_sol_t_sol_ext_1810
VTK_sol_t_sol_ext_1811
VTK_sol_t_sol_ext_1812
VTK_sol_t_sol_ext_1813
VTK_sol_t_sol_ext_1814
VTK_sol_t_sol_ext_1815
VTK_sol_t_sol_ext_1816
VTK_sol_t_sol_ext_1817
VTK_sol_t_sol_ext_1818
VTK_sol_t_sol_ext_1819
VTK_sol_t_sol_ext_1820
VTK_sol_t_sol_ext_1821
VTK_sol_t_sol_ext_1822
VTK_sol_t_sol_ext_1823
VTK_sol_t_sol_ext_1824
VTK_sol_t_sol_ext_1825
VTK_sol_t_sol_ext_1826
VTK_sol_t_sol_ext_1827
VTK_sol_t_sol_ext_1828
VTK_sol_t_sol_ext_1829
VTK_sol_t_sol_ext_1830
VTK_sol_t_sol_ext_1831
VTK_sol_t_sol_ext_1832
VTK_sol_t_sol_ext_1833
VTK_sol_t_sol_ext_1834
VTK_sol_t_sol_ext_1835
VTK_sol_t_sol_ext_1836
VTK_sol_t_sol_ext_1837
VTK_sol_t_sol_ext_1838
VTK_sol_t_sol_ext_1839
VTK_sol_t_sol_ext_1840
VTK_sol_t_sol_ext_1841
VTK_sol_t_sol_ext_1842
VTK_sol_t_sol_ext_1843
VTK_sol_t_sol_ext_1844
VTK_sol_t_sol_ext_1845
VTK_sol_t_sol_ext_1846
VTK_sol_t_sol_ext_1847
VTK_sol_t_sol_ext_1848
VTK_sol_t_sol_ext_1849
VTK_sol_t_sol_ext_1850
VTK_sol_t_sol_ext_1851
VTK_sol_t_sol_ext_1852
VTK_sol_t_sol_ext_1853
VTK_sol_t_sol_ext_1854
VTK_sol_t_sol_ext_1855
VTK_sol_t_sol_ext_1856
VTK_sol_t_sol_ext_1857
VTK_sol_t_sol_ext_1858
VTK_sol_t_sol_ext_1859
VTK_sol_t_sol_ext_1860
VTK_sol_t_sol_ext_1861
VTK_sol_t_sol_ext_1862
VTK_sol_t_sol_ext_1863
VTK_sol_t_sol_ext_1864
VTK_sol_t_sol_ext_1865
VTK_sol_t_sol_ext_1866
VTK_sol_t_sol_ext_1867
VTK_sol_t_sol_ext_1868
VTK_sol_t_sol_ext_1869
VTK_sol_t_sol_ext_1870
VTK_sol_t_sol_ext_1871
VTK_sol_t_sol_ext_1872
VTK_sol_t_sol_ext_1873
VTK_sol_t_sol_ext_1874
VTK_sol_t_sol_ext_1875
VTK_sol_t_sol_ext_1876
VTK_sol_t_sol_ext_1877
VTK_sol_t_sol_ext_1878
VTK_sol_t_sol_ext_1879
VTK_sol_t_sol_ext_1880
VTK_sol_t_sol_ext_1881
VTK_sol_t_sol_ext_1882
VTK_sol_t_sol_ext_1883
VTK_sol_t_sol_ext_1884
VTK_sol_t_sol_ext_1885
VTK_sol_t_sol_ext_1886
VTK_sol_t_sol_ext_1887
VTK_sol_t_sol_ext_1888
VTK_sol_t_sol_ext_1889
VTK_sol_t_sol_ext_1890
VTK_sol_t_sol_ext_1891
VTK_sol_t_sol_ext_1892
VTK_sol_t_sol_ext_1893
VTK_sol_t_sol_ext_1894
VTK_sol_t_sol_ext_1895
VTK_sol_t_sol_ext_1896
VTK_sol_t_sol_ext_1897
VTK_sol_t_sol_ext_1898
VTK_sol_t_sol_ext_1899
VTK_sol_t_sol_ext_1900
VTK_sol_t_sol_ext_1901
VTK_sol_t_sol_ext_1902
VTK_sol_t_sol_ext_1903
VTK_sol_t_sol_ext_1904
VTK_sol_t_sol_ext_1905
VTK_sol_t_sol_ext_1906
VTK_sol_t_sol_ext_1907
VTK_sol_t_sol_ext_1908
VTK_sol_t_sol_ext_1909
VTK_sol_t_sol_ext_1910
VTK_sol_t_sol_ext_1911
VTK_sol_t_sol_ext_1912
VTK_sol_t_sol_ext_1913
VTK_sol_t_sol_ext_1914
VTK_sol_t_sol_ext_1915
VTK_sol_t_sol_ext_1916
VTK_sol_t_sol_ext_1917
VTK_sol_t_sol_ext_1918
VTK_sol_t_sol_ext_1919
VTK_sol_t_sol_ext_1920
VTK_sol_t_sol_ext_1921
VTK_sol_t_sol_ext_1922
VTK_sol_t_sol_ext_1923
VTK_sol_t_sol_ext_1924
VTK_sol_t_sol_ext_1925
VTK_sol_t_sol_ext_1926
VTK_sol_t_sol_ext_1927
VTK_sol_t_sol_ext_1928
VTK_sol_t_sol_ext_1929
VTK_sol_t_sol_ext_1930
VTK_sol_t_sol_ext_1931
VTK_sol_t_sol_ext_1932
VTK_sol_t_sol_ext_1933
VTK_sol_t_sol_ext_1934
VTK_sol_t_sol_ext_1935
VTK_sol_t_sol_ext_1936
VTK_sol_t_sol_ext_1937
VTK_sol_t_sol_ext_1938
VTK_sol_t_sol_ext_1939
VTK_sol_t_sol_ext_1940
VTK_sol_t_sol_ext_1941
VTK_sol_t_sol_ext_1942
VTK_sol_t_sol_ext_1943
VTK_sol_t_sol_ext_1944
VTK_sol_t_sol_ext_1945
VTK_sol_t_sol_ext_1946
VTK_sol_t_sol_ext_1947
VTK_sol_t_sol_ext_1948
VTK_sol_t_sol_ext_1949
VTK_sol_t_sol_ext_1950
VTK_sol_t_sol_ext_1951
VTK_sol_t_sol_ext_1952
VTK_sol_t_sol_ext_1953
VTK_sol_t_sol_ext_1954
VTK_sol_t_sol_ext_1955
VTK_sol_t_sol_ext_1956
VTK_sol_t_sol_ext_1957
VTK_sol_t_sol_ext_1958
VTK_sol_t_sol_ext_1959
VTK_sol_t_sol_ext_1960
VTK_sol_t_sol_ext_1961
VTK_sol_t_sol_ext_1962
VTK_sol_t_sol_ext_1963
VTK_sol_t_sol_ext_1964
VTK_sol_t_sol_ext_1965
VTK_sol_t_sol_ext_1966
VTK_sol_t_sol_ext_1967
VTK_sol_t_sol_ext_1968
VTK_sol_t_sol_ext_1969
VTK_sol_t_sol_ext_1970
VTK_sol_t_sol_ext_1971
VTK_sol_t_sol_ext_1972
VTK_sol_t_sol_ext_1973
VTK_sol_t_sol_ext_1974
VTK_sol_t_sol_ext_1975
VTK_sol_t_sol_ext_1976
VTK_sol_t_sol_ext_1977
VTK_sol_t_sol_ext_1978
VTK_sol_t_sol_ext_1979
VTK_sol_t_sol_ext_1980
VTK_sol_t_sol_ext_1981
VTK_sol_t_sol_ext_1982
VTK_sol_t_sol_ext_1983
VTK_sol_t_sol_ext_1984
VTK_sol_t_sol_ext_1985
VTK_sol_t_sol_ext_1986
VTK_sol_t_sol_ext_1987
VTK_sol_t_sol_ext_1988
VTK_sol_t_sol_ext_1989
VTK_sol_t_sol_ext_1990
VTK_sol_t_sol_ext_1991
VTK_sol_t_sol_ext_1992
VTK_sol_t_sol_ext_1993
VTK_sol_t_sol_ext_1994
VTK_sol_t_sol_ext_1995
VTK_sol_t_sol_ext_1996
VTK_sol_t_sol_ext_1997
VTK_sol_t_sol_ext_1998
VTK_sol_t_sol_ext_1999
VTK_sol_t_sol_ext_2000
VTK_sol_t_sol_ext_2001
VTK_sol_t_sol_ext_2002
VTK_sol_t_sol_ext_2003
VTK_sol_t_sol_ext_2004
VTK_sol_t_sol_ext_2005
VTK_sol_t_sol_ext_2006
VTK_sol_t_sol_ext_2007
VTK_sol_t_sol_ext_2008
VTK_sol_t_sol_ext_2009
VTK_sol_t_sol_ext_2010
VTK_sol_t_sol_ext_2011
VTK_sol_t_sol_ext_2012
VTK_sol_t_sol_ext_2013
VTK_sol_t_sol_ext_2014
VTK_sol_t_sol_ext_2015
VTK_sol_t_sol_ext_2016
VTK_sol_t_sol_ext_2017
VTK_sol_t_sol_ext_2018
VTK_sol_t_sol_ext_2019
VTK_sol_t_sol_ext_2020
VTK_sol_t_sol_ext_2021